LAMMPS data file via write_data, version 23 Jun 2022, timestep = 1000

3840 atoms
1 atom types

-48.37465197795785 48.37465197795785 xlo xhi
-50.257219471181365 50.257219471181365 ylo yhi
-7.378499999999999 7.378499999999999 zlo zhi

Masses

1 12.011

Atoms # atomic

2 1 -47.104064120669925 -49.550866396157424 -0.3296792435543431 0 0 0
3 1 -47.157134560243726 -48.14519916780494 -0.28254632721121326 0 0 0
6 1 -44.73250163391771 -49.581168982431386 -0.267152019123381 0 0 0
7 1 -44.76049678810359 -48.17919438071137 -0.28074655050340186 0 0 0
8 1 -45.94484325954412 -47.440964464210985 -0.33870512245799395 0 0 0
10 1 -42.3028075078936 -49.58350604153791 -0.2214955603868078 0 0 0
11 1 -42.29605784818692 -48.17735115976275 -0.27607178971468693 0 0 0
12 1 -43.545788663721375 -47.502182794928146 -0.2239618203190619 0 0 0
56 1 -47.18032185867592 -45.38888865694655 -0.2754521917937715 0 0 0
59 1 -45.96358905682936 -46.07261497400498 -0.37118226296043916 0 0 0
60 1 -44.7477712783176 -45.3964888957804 -0.31021155137993034 0 0 0
63 1 -43.54597382227363 -46.1099022628869 -0.25444972559889556 0 0 0
64 1 -42.36372271550843 -45.39612070856374 -0.19662395718162035 0 0 0
57 1 -47.177033639007504 -43.996638245618044 -0.1760281570595515 0 0 0
61 1 -44.74441306329926 -44.014420567193554 -0.22174782552568123 0 0 0
65 1 -42.34366845416317 -43.98348513407461 -0.1688979065452058 0 0 0
9 1 -43.5158513902234 -50.22118464432955 -0.1607051051124571 0 0 0
14 1 -39.898587109670835 -49.57564419571979 -0.17055751364730556 0 0 0
15 1 -39.904388892407795 -48.17428226893108 -0.19084552429426638 0 0 0
16 1 -41.10503596074534 -47.49290881153576 -0.2525598016739541 0 0 0
18 1 -37.48727321109116 -49.58780786843556 -0.2623060551688676 0 0 0
19 1 -37.50692743231732 -48.19725131710072 -0.3176918211798091 0 0 0
20 1 -38.6845656567549 -47.47916073642294 -0.25927827468691084 0 0 0
24 1 -36.287549825503476 -47.502595761413005 -0.37349793977362516 0 0 0
67 1 -41.12878401299438 -46.08812834589973 -0.1938698415590614 0 0 0
68 1 -39.912754824714476 -45.41099982953631 -0.25618633151841863 0 0 0
71 1 -38.69449275511015 -46.09306231533725 -0.31029783496154806 0 0 0
72 1 -37.51901813625683 -45.37867009369859 -0.32184679394098015 0 0 0
75 1 -36.299267355421975 -46.09521722299688 -0.3375761787455208 0 0 0
69 1 -39.89047321743793 -43.98484912006836 -0.30845600861515404 0 0 0
73 1 -37.49060680278176 -43.97883470975413 -0.36912657128538723 0 0 0
22 1 -35.01805573935229 -49.57277663752512 -0.26932010453286953 0 0 0
23 1 -35.05230320993384 -48.19721481221348 -0.31228672113351597 0 0 0
26 1 -32.6274176644897 -49.58912558694534 -0.4739280541568253 0 0 0
27 1 -32.628844119514824 -48.178654240745466 -0.5098836646158413 0 0 0
28 1 -33.83572873079561 -47.4740122297661 -0.4570903320527165 0 0 0
30 1 -30.216428052495434 -49.58763604302105 -0.668716187070206 0 0 0
31 1 -30.2206709596447 -48.18334859322147 -0.6333949270357965 0 0 0
32 1 -31.43381079096398 -47.471650238974 -0.6455886824143647 0 0 0
76 1 -35.102090963532824 -45.39617294901358 -0.32740865845451567 0 0 0
79 1 -33.884024851302186 -46.11536017847078 -0.38179744861506093 0 0 0
80 1 -32.657624304472066 -45.420031274594656 -0.5058364976178964 0 0 0
83 1 -31.42652471794904 -46.0842136739658 -0.5540547406803793 0 0 0
84 1 -30.219413002605247 -45.36335637056003 -0.6160477579074899 0 0 0
77 1 -35.09244577441525 -43.99767608568797 -0.3376551897112959 0 0 0
81 1 -32.65763895306628 -44.02180362118464 -0.5141044942614649 0 0 0
34 1 -27.78003676735602 -49.56953634526422 -0.7581154117686848 0 0 0
35 1 -27.774722656931242 -48.18022736998902 -0.7208112913681057 0 0 0
36 1 -28.998181400003435 -47.471241772881825 -0.7587964527658777 0 0 0
38 1 -25.363867867274546 -49.605528369974444 -0.6363292375764042 0 0 0
39 1 -25.36044060209293 -48.211775190417676 -0.6524786597588502 0 0 0
40 1 -26.570573604082885 -47.498955913169276 -0.6512087132436087 0 0 0
42 1 -22.928778946191827 -49.59035627441701 -0.5280087053845849 0 0 0
43 1 -22.931201533154674 -48.18637418953574 -0.4774238063121866 0 0 0
44 1 -24.116740236917728 -47.4977564587443 -0.6176080828566587 0 0 0
87 1 -28.99702541417226 -46.06214403979991 -0.6683045303922348 0 0 0
88 1 -27.78581713157166 -45.39072700737143 -0.6331655317306227 0 0 0
91 1 -26.559541257993452 -46.09209741423224 -0.5906783253815192 0 0 0
92 1 -25.335776610894833 -45.40887463823866 -0.5260346361437825 0 0 0
95 1 -24.126200273407616 -46.081043186246376 -0.6362136669498191 0 0 0
96 1 -22.949704989710416 -45.399459708314296 -0.6241687659542609 0 0 0
89 1 -27.779410298195586 -43.99711337858656 -0.49985165169857887 0 0 0
93 1 -25.382147199777876 -44.00466831957038 -0.437450767115844 0 0 0
97 1 -22.945312002632647 -44.013282317439376 -0.4959166276335124 0 0 0
53 1 -16.89001125020339 -50.22646933832801 -0.42241295366211123 0 0 0
46 1 -20.468480893997715 -49.60676319631222 -0.4992096856307369 0 0 0
47 1 -20.50978301473927 -48.18945739843399 -0.4420927338322637 0 0 0
48 1 -21.71184721051029 -47.48669537571255 -0.45927714700468997 0 0 0
50 1 -18.101934424012367 -49.54123109432786 -0.43832927462873567 0 0 0
51 1 -18.109447212463323 -48.158518188148314 -0.3757257216620336 0 0 0
52 1 -19.32817466172516 -47.4731557955549 -0.39746937265347165 0 0 0
54 1 -16.8873098756223 -47.48221418828401 -0.31656491277015364 0 0 0
99 1 -21.72998386893794 -46.09266875021926 -0.5509556740878678 0 0 0
100 1 -20.56983276190279 -45.37151104872242 -0.4515722568127285 0 0 0
103 1 -19.312938916536993 -46.06480052283118 -0.413406962162339 0 0 0
104 1 -18.103440175974647 -45.38030949286686 -0.34038481978513213 0 0 0
107 1 -16.913139995607068 -46.105471432900835 -0.1590674071229429 0 0 0
101 1 -20.538762635954992 -43.98249492391544 -0.44125401235203965 0 0 0
105 1 -18.128556540848823 -43.9963506607415 -0.29057756001672325 0 0 0
62 1 -45.94840504410128 -43.2900109100394 -0.16000293510055136 0 0 0
66 1 -43.53996128799447 -43.27985879693731 -0.20492221596426383 0 0 0
110 1 -47.213641216661955 -41.21141711830501 -0.14614529450764527 0 0 0
111 1 -47.17038967249251 -39.79038739567004 -0.3194443812142054 0 0 0
113 1 -45.95354672587517 -41.8981611490187 -0.1389432211033322 0 0 0
114 1 -44.74726204273165 -41.18921690692131 -0.1184096040045903 0 0 0
115 1 -44.770584568277805 -39.808366987085925 -0.22958597151902152 0 0 0
116 1 -45.956717841021 -39.093129499158636 -0.2593627151528614 0 0 0
117 1 -43.50903396672829 -41.89135339280058 -0.11604670993773919 0 0 0
118 1 -42.31330495914597 -41.18239300405593 -0.1505349576325352 0 0 0
119 1 -42.314565932450726 -39.80261490957959 -0.2701785925673294 0 0 0
120 1 -43.53635215659465 -39.12649009734792 -0.26323503440718954 0 0 0
167 1 -45.9402030476807 -37.70398077304566 -0.2875407359962091 0 0 0
171 1 -43.535981178610164 -37.72324079788129 -0.25498022959640093 0 0 0
70 1 -41.09739795960855 -43.30161563685324 -0.19398531544812483 0 0 0
74 1 -38.703510356584424 -43.31099585669027 -0.3310432420163099 0 0 0
78 1 -36.27828811979716 -43.28249515159551 -0.37575587398817406 0 0 0
121 1 -41.12414801338332 -41.903104449182536 -0.24458443075814515 0 0 0
122 1 -39.92817426515495 -41.2117288401011 -0.3625636170857919 0 0 0
123 1 -39.897752098253136 -39.82139523004344 -0.4079655163387203 0 0 0
124 1 -41.10214113806285 -39.1135089280848 -0.34928318070030023 0 0 0
125 1 -38.699023079617774 -41.88852891649369 -0.34282031371699856 0 0 0
126 1 -37.50044815093412 -41.19772343515756 -0.26672637495147766 0 0 0
127 1 -37.493630341418836 -39.80769250818205 -0.2920918081789111 0 0 0
128 1 -38.701171607247474 -39.12486582840643 -0.336639523794725 0 0 0
129 1 -36.28271247318825 -41.890767023561274 -0.3289571087318542 0 0 0
132 1 -36.26236247378104 -39.12392039486454 -0.21564942157015948 0 0 0
175 1 -41.13077520585632 -37.704934898305666 -0.28571584790715915 0 0 0
179 1 -38.730250750618474 -37.72533364234084 -0.2761829312579133 0 0 0
183 1 -36.276720312310246 -37.74304345015808 -0.19286415801007165 0 0 0
82 1 -33.88078408715553 -43.30380232569269 -0.41495702003453827 0 0 0
85 1 -30.234622933684403 -43.973100781987526 -0.5164228171235687 0 0 0
86 1 -31.444597221313256 -43.313929295962446 -0.5309219173350462 0 0 0
130 1 -35.082781348825314 -41.241159239905656 -0.18779477467038125 0 0 0
131 1 -35.045355603539264 -39.83677907511518 -0.2517103855930194 0 0 0
133 1 -33.856310715520564 -41.94126715635042 -0.2554006096082241 0 0 0
134 1 -32.62482514872592 -41.22482382213119 -0.2494364537259071 0 0 0
135 1 -32.633085541086174 -39.833497873309156 -0.20017808951858848 0 0 0
136 1 -33.829319558053186 -39.156145425509926 -0.2174828867731562 0 0 0
137 1 -31.420909585417036 -41.93304979433857 -0.3078512871851653 0 0 0
138 1 -30.204865102096193 -41.233973614051465 -0.28418348755598666 0 0 0
139 1 -30.195730270465678 -39.857359749029754 -0.243453522258461 0 0 0
140 1 -31.405774600234064 -39.16149190563397 -0.15371639724953962 0 0 0
187 1 -33.86895744322365 -37.7544940100091 -0.1732776853974275 0 0 0
191 1 -31.423245524013733 -37.74151352339417 -0.08464753684864894 0 0 0
90 1 -28.992155612736518 -43.30229343062606 -0.4429569916427163 0 0 0
94 1 -26.578329387997428 -43.29863801273674 -0.4127913097671339 0 0 0
98 1 -24.1299963595516 -43.31958176103737 -0.3321412730284518 0 0 0
141 1 -28.996071847014704 -41.9303440253615 -0.3327742644368751 0 0 0
142 1 -27.788908618863438 -41.19764227201827 -0.3000966489530942 0 0 0
143 1 -27.788845320945185 -39.80587450243984 -0.3227256677549873 0 0 0
144 1 -29.011509868884016 -39.13284413763061 -0.269803723706641 0 0 0
145 1 -26.57887347095448 -41.88714071633754 -0.32458820260751875 0 0 0
146 1 -25.36758085590623 -41.214175026271874 -0.30775080615721084 0 0 0
147 1 -25.35733474701558 -39.791964760732455 -0.30163491230693557 0 0 0
148 1 -26.58932880643222 -39.10732342231239 -0.24538113182943025 0 0 0
149 1 -24.161073779955352 -41.928711273957994 -0.3547880393621889 0 0 0
150 1 -22.966191905523406 -41.21794950990375 -0.2298648018373834 0 0 0
151 1 -22.950929902567758 -39.7985577870257 -0.24473790710142562 0 0 0
152 1 -24.156382996240545 -39.08618007202776 -0.1760088289891644 0 0 0
195 1 -29.003852265461834 -37.74384716569979 -0.20677391194030612 0 0 0
199 1 -26.601400120436193 -37.71713948141141 -0.12874076726210285 0 0 0
102 1 -21.759775803492506 -43.283372687284334 -0.41960183012968943 0 0 0
106 1 -19.334254655850327 -43.27923836525383 -0.34374694300685354 0 0 0
108 1 -16.92887475392977 -43.29990485315846 -0.2046759203003235 0 0 0
153 1 -21.755264950760374 -41.87204878454882 -0.304472699711798 0 0 0
154 1 -20.533707088136026 -41.20005467629339 -0.29513235071429655 0 0 0
155 1 -20.49498542669584 -39.806933290447425 -0.30345930077478694 0 0 0
156 1 -21.73799553519278 -39.11196042148702 -0.273569067963471 0 0 0
157 1 -19.33068094436257 -41.89803268806597 -0.27288643849310673 0 0 0
158 1 -18.11570159420678 -41.223080394773135 -0.3354220797082622 0 0 0
159 1 -18.096791625598854 -39.81465003451405 -0.25114535355520895 0 0 0
160 1 -19.295418882583036 -39.11094295236973 -0.2754048369564834 0 0 0
161 1 -16.912108742350476 -41.88939529872741 -0.21616448755654333 0 0 0
162 1 -16.91283960713158 -39.115443710710196 -0.220860060076992 0 0 0
207 1 -21.769522137434127 -37.69896275403372 -0.2393637384969429 0 0 0
211 1 -19.29774595257384 -37.737396257888115 -0.31606957976794214 0 0 0
215 1 -16.91367704958582 -37.717442749487816 -0.28995666233394385 0 0 0
163 1 -48.34069683182061 -37.686853073761554 -0.3884741920114876 0 0 0
217 1 -48.35047227201874 -33.49957060102403 -0.36446165823668114 0 0 0
166 1 -48.368873592454115 -34.89695792876323 -0.3639934553660502 0 0 0
164 1 -47.145917735495566 -36.97289588903975 -0.3689528891904838 0 0 0
165 1 -47.16181602225851 -35.60131545830053 -0.3789211689134548 0 0 0
168 1 -44.7213348923441 -37.013345476500646 -0.25221520310069434 0 0 0
169 1 -44.75469392761159 -35.59241039524031 -0.23561190835500995 0 0 0
170 1 -45.95041239570463 -34.91973329312185 -0.3447163689594083 0 0 0
172 1 -42.332191086609726 -37.01357070349144 -0.2826361223177936 0 0 0
173 1 -42.31002104559637 -35.61588399572116 -0.13831492623434005 0 0 0
174 1 -43.52482362252017 -34.899005540407586 -0.10370459837308976 0 0 0
218 1 -47.104729087161914 -32.812427607231655 -0.2953818189013337 0 0 0
221 1 -45.92543591063546 -33.52450066868839 -0.30858437425789526 0 0 0
222 1 -44.71049053128112 -32.80685888594974 -0.15661516232440456 0 0 0
225 1 -43.49912145209065 -33.49633238137294 -0.10078123522094459 0 0 0
226 1 -42.284003050893645 -32.79973226657438 -0.015156076412490612 0 0 0
219 1 -47.12188808878002 -31.429146868199485 -0.09156129470690756 0 0 0
176 1 -39.933897453015035 -37.01699812332066 -0.2046957592317227 0 0 0
177 1 -39.88766653223021 -35.63417109106169 -0.1307233471194374 0 0 0
178 1 -41.08040937720942 -34.93390426920477 -0.051708952157850735 0 0 0
180 1 -37.48713293666349 -37.04274443068457 -0.1644029439320991 0 0 0
181 1 -37.44736384797564 -35.64287590720228 -0.08796876729621719 0 0 0
182 1 -38.66222763057019 -34.938634866237486 -0.17377197355230256 0 0 0
186 1 -36.25481412891966 -34.9304958264191 -0.14519116412391203 0 0 0
229 1 -41.0899176768035 -33.53736967194081 -0.0693455265934567 0 0 0
230 1 -39.89462222311008 -32.8561874712714 -0.23071747085872493 0 0 0
233 1 -38.64186343831661 -33.53233452922875 -0.22342242273970872 0 0 0
234 1 -37.454215818427876 -32.84550311951085 -0.28382858648448006 0 0 0
237 1 -36.24407486558418 -33.52084476444608 -0.2181934586095985 0 0 0
231 1 -39.85700596546212 -31.435834362953965 -0.22235468893373447 0 0 0
235 1 -37.48811502335256 -31.458413948193705 -0.2121324590210619 0 0 0
184 1 -35.09252756413893 -37.049662930457245 -0.141474533787685 0 0 0
185 1 -35.062898281594975 -35.63877775093653 -0.05156283830531306 0 0 0
188 1 -32.65200338981087 -37.04566168722708 -0.1124711182587309 0 0 0
189 1 -32.64058402908761 -35.64826783001371 -0.15236174736232364 0 0 0
190 1 -33.82206392026756 -34.94055997897655 -0.09287427925682788 0 0 0
192 1 -30.210954497118372 -37.04094315969332 -0.07381172907663852 0 0 0
193 1 -30.2388189355448 -35.643481235283 -0.07797534155088687 0 0 0
194 1 -31.410580303840963 -34.94652126698415 -0.1287720202291157 0 0 0
238 1 -35.03500433582927 -32.83425097481821 -0.12188485002649271 0 0 0
241 1 -33.82572062348085 -33.54563784928622 -0.0885968329317354 0 0 0
242 1 -32.62588823711971 -32.82166665751729 -0.06718564504135179 0 0 0
245 1 -31.42381621931387 -33.53392772289452 -0.11948692331894185 0 0 0
246 1 -30.226055560304722 -32.865437935755864 -0.17340748376253168 0 0 0
249 1 -29.036970921804812 -33.584888201581904 -0.13449409809239615 0 0 0
239 1 -35.07687248927301 -31.460244245194712 -0.07297038048464136 0 0 0
243 1 -32.65916961050145 -31.4517639195961 -0.056372421511213605 0 0 0
247 1 -30.230701248613787 -31.460310967158577 -0.20653684201814537 0 0 0
203 1 -24.152741998685624 -37.669658390227816 -0.1604542986146405 0 0 0
196 1 -27.814849230920895 -37.038779645266935 -0.1814983592365803 0 0 0
197 1 -27.795029450464817 -35.63828355018747 -0.1547508263657752 0 0 0
198 1 -29.009754087245962 -34.969070290008304 -0.03803241406781487 0 0 0
200 1 -25.375635617312966 -37.01434649691298 -0.08557106231954156 0 0 0
201 1 -25.37758169079085 -35.609617299995826 -0.03409026951224674 0 0 0
202 1 -26.58153138218523 -34.926283666019806 -0.14435945181236662 0 0 0
204 1 -22.969821333707973 -36.9805079615249 -0.16011697933478364 0 0 0
205 1 -22.976492097786114 -35.589676152751125 -0.08297114312623985 0 0 0
206 1 -24.18716293605471 -34.899446088181364 -0.060238794605591686 0 0 0
250 1 -27.840382456038768 -32.851904566090894 -0.15932845173233834 0 0 0
253 1 -26.61679855365339 -33.5326970741206 -0.12174375648444477 0 0 0
254 1 -25.39562382034411 -32.8349094013567 -0.094878182364551 0 0 0
257 1 -24.178765884943235 -33.5258645212522 -0.18616028853364616 0 0 0
258 1 -22.993659573813726 -32.83418599463489 -0.23984114933328782 0 0 0
251 1 -27.822240406418782 -31.45893238851856 -0.2720327278491043 0 0 0
255 1 -25.382033202717775 -31.43449950435105 -0.15588881257567547 0 0 0
259 1 -23.004221920263777 -31.438688823874124 -0.3653140790857926 0 0 0
208 1 -20.53252936116892 -37.03286221317811 -0.30677234769002765 0 0 0
209 1 -20.55407235538548 -35.609588019168 -0.29551211250635356 0 0 0
210 1 -21.740175588886604 -34.90466487375604 -0.21939946145410907 0 0 0
212 1 -18.115704955229592 -37.00367417641502 -0.2713898000087061 0 0 0
213 1 -18.124025297165538 -35.61900602592076 -0.36155992958345634 0 0 0
214 1 -19.35512174205284 -34.90403761410688 -0.3664086300827026 0 0 0
216 1 -16.879222553921178 -34.90822332792344 -0.3791301058349645 0 0 0
261 1 -21.778426657787627 -33.52525656690057 -0.37317193106521485 0 0 0
262 1 -20.548332434047587 -32.82879569231973 -0.5356969826646336 0 0 0
265 1 -19.337050197282508 -33.51262919220045 -0.5481846791530313 0 0 0
266 1 -18.11963044681373 -32.81887088967291 -0.5725118706283506 0 0 0
269 1 -16.89617968425492 -33.51833545807678 -0.4209935361390306 0 0 0
263 1 -20.52703612005658 -31.434665192124662 -0.6688916399182838 0 0 0
220 1 -48.34895176846162 -30.718414944317153 -0.07776664554440967 0 0 0
223 1 -44.72864090103123 -31.407154817012138 -0.06145849738222618 0 0 0
271 1 -48.340654057895506 -29.352369479277115 -0.002587584622134209 0 0 0
232 1 -41.079004017680504 -30.711349852994253 -0.09829868278661265 0 0 0
236 1 -38.66422687647373 -30.724948926976275 -0.23301297168997884 0 0 0
240 1 -36.27692960958961 -30.761249154697047 -0.06932653088240819 0 0 0
283 1 -41.100016290292096 -29.334391110758798 -0.031657893717655136 0 0 0
284 1 -39.909124433205484 -28.62256764650965 -0.07707809371248275 0 0 0
287 1 -38.70203616082604 -29.33049940423415 -0.13277585534036654 0 0 0
288 1 -37.472843124431655 -28.668745761480388 -0.0004136135744897168 0 0 0
291 1 -36.25340335504329 -29.361690207348087 -0.0514406328128944 0 0 0
244 1 -33.877986478346486 -30.77155056382952 -0.07600128988770659 0 0 0
248 1 -31.447718193648637 -30.753263393669183 -0.05554182316008589 0 0 0
292 1 -35.04309295982874 -28.670140543744502 -0.06790729022416538 0 0 0
293 1 -35.028862849617305 -27.29427339915674 -0.008719872041171773 0 0 0
295 1 -33.86419324889858 -29.39117466829255 -0.05614416543419979 0 0 0
296 1 -32.66842144166524 -28.664573199124032 -0.04155367937107102 0 0 0
297 1 -32.6580642618953 -27.259498575349642 -0.04019405163313269 0 0 0
299 1 -31.46237181742847 -29.382161947237616 -0.11183627744582528 0 0 0
300 1 -30.252930971183375 -28.689634532412605 -0.17078155475155232 0 0 0
301 1 -30.246022845135276 -27.275414004137083 -0.18005581174370944 0 0 0
302 1 -31.45723005059565 -26.56303138980733 -0.04436044424949597 0 0 0
252 1 -29.037063777463143 -30.779237806584046 -0.31279246702383157 0 0 0
303 1 -29.054089500082906 -29.375265460394612 -0.3369347882065058 0 0 0
306 1 -29.041167062990215 -26.570510219823632 -0.28899847831575826 0 0 0
357 1 -29.052059347454158 -25.170747978887665 -0.4078724240436033 0 0 0
353 1 -31.4642468500636 -25.165642830331286 -0.19053145094908058 0 0 0
313 1 -23.019263660004853 -27.23510948718184 -0.7229056642148046 0 0 0
312 1 -22.98575642606861 -28.643462444573647 -0.6047512882136076 0 0 0
309 1 -25.443272759905064 -27.263647423442112 -0.4992889306689469 0 0 0
308 1 -25.421320026965724 -28.66310181222585 -0.4072338169355721 0 0 0
311 1 -24.188349504514598 -29.339574535048285 -0.46937047812540694 0 0 0
307 1 -26.622057481862154 -29.37883156018378 -0.3474181390036125 0 0 0
310 1 -26.650851119393753 -26.532532961742127 -0.392730018301437 0 0 0
314 1 -24.22987586870059 -26.583730815428286 -0.6153214517986156 0 0 0
256 1 -26.600412864180285 -30.754047079353356 -0.25443465911637364 0 0 0
260 1 -24.196361578308387 -30.733544625078288 -0.28604078185370496 0 0 0
304 1 -27.836358266571263 -28.675299074890262 -0.3581032604954762 0 0 0
305 1 -27.855360294768364 -27.274821271400274 -0.336107479873668 0 0 0
365 1 -24.252286284225235 -25.211756144680344 -0.6191138559132835 0 0 0
361 1 -26.691632124595536 -25.145866907579368 -0.47330428256306384 0 0 0
322 1 -19.365182593882444 -26.52557743573225 -0.7100833246331811 0 0 0
321 1 -18.150560933033983 -27.239346161978236 -0.6328470129376751 0 0 0
320 1 -18.13945061061098 -28.60896141604792 -0.4727586548327619 0 0 0
319 1 -19.331124874623256 -29.30911855140775 -0.623753301865255 0 0 0
318 1 -21.815438333747217 -26.529241627864856 -0.7662551370542959 0 0 0
317 1 -20.582069001855974 -27.181944514829915 -0.7288834041651694 0 0 0
316 1 -20.587760709869602 -28.6142877801876 -0.6193511315293345 0 0 0
315 1 -21.774265538220455 -29.331929073591912 -0.6468376598631668 0 0 0
270 1 -16.944011759012092 -30.674767168516908 -0.49633413309404373 0 0 0
324 1 -16.911714407361686 -26.537510841348432 -0.6989132172427637 0 0 0
323 1 -16.940328579959886 -29.30779866177299 -0.4215075883041316 0 0 0
268 1 -19.335040727350137 -30.700401013901267 -0.6886282616651118 0 0 0
267 1 -18.142449654064695 -31.402274367120633 -0.5745434891647487 0 0 0
264 1 -21.77098680760872 -30.730802118647496 -0.6695064937910041 0 0 0
377 1 -16.895840420669096 -25.141892271569493 -0.650449060919655 0 0 0
369 1 -21.808835256807225 -25.132069145038475 -0.7782342108114909 0 0 0
373 1 -19.3429755468874 -25.12989775878171 -0.7085524510911911 0 0 0
329 1 -45.95486537647119 -25.19583074041347 0.4301772379884545 0 0 0
224 1 -45.93000140594066 -30.732364487260185 0.029973857452274807 0 0 0
227 1 -42.25983573644357 -31.40672568905338 0.011974733780718345 0 0 0
228 1 -43.50493083456732 -30.738054538108546 0.1047101134568592 0 0 0
272 1 -47.130930758927235 -28.65120456878249 0.10609270686007603 0 0 0
273 1 -47.159882436001915 -27.25744011159779 0.16038109383143373 0 0 0
274 1 -48.36551725689111 -26.547929063992946 0.1951448067814784 0 0 0
275 1 -45.91523320927609 -29.35075652104729 0.10988950530464069 0 0 0
276 1 -44.728095573371746 -28.677535215003477 0.2601619034246873 0 0 0
277 1 -44.7469682242737 -27.29129458400421 0.28730793701231083 0 0 0
278 1 -45.961210844616424 -26.593438419148004 0.43717051672085516 0 0 0
279 1 -43.51247928307615 -29.34637921825758 0.17488493667353677 0 0 0
280 1 -42.295960815420806 -28.66298824908202 0.18329139449661902 0 0 0
281 1 -42.295667022227725 -27.23290776102372 0.1733303057921997 0 0 0
282 1 -43.525218579791684 -26.587877299164525 0.31847060844225605 0 0 0
325 1 -48.34314625336246 -25.204326497732175 0.43281327424364135 0 0 0
333 1 -43.54284010291047 -25.18760146007159 0.2657675392818394 0 0 0
285 1 -39.887807466531754 -27.243960751274017 0.09358697122386243 0 0 0
286 1 -41.09044118474696 -26.554715700038027 0.1163269845060942 0 0 0
289 1 -37.46775468999364 -27.271922355642662 0.1146510114683117 0 0 0
290 1 -38.65830497052073 -26.57494277677052 0.0693440837707552 0 0 0
294 1 -36.235406040445405 -26.595005825548622 0.18552966868601545 0 0 0
337 1 -41.09951437631659 -25.17397121396328 0.21756800257242942 0 0 0
345 1 -36.26650991307888 -25.179750828022435 0.1894146682941192 0 0 0
341 1 -38.682797956311504 -25.16988143698319 0.10977040124567969 0 0 0
298 1 -33.853597003554285 -26.538221829534073 0.012118871775454813 0 0 0
349 1 -33.84837283303607 -25.14561214963635 0.030384828139166997 0 0 0
350 1 -32.66372900507224 -24.48048122490046 -0.05516413508444944 0 0 0
351 1 -32.643382626203355 -23.089575085203283 -0.042749425510549006 0 0 0
354 1 -30.249473085715064 -24.46311547929404 -0.36673181462992516 0 0 0
355 1 -30.25505205011688 -23.045588199332926 -0.3231392652561148 0 0 0
356 1 -31.475160782105323 -22.359300691905634 -0.2168963398963702 0 0 0
403 1 -33.8799943027679 -20.975599474291286 -0.011246001913444728 0 0 0
404 1 -32.68915957120265 -20.266792797440267 -0.15823188666335078 0 0 0
405 1 -32.658684251070426 -18.881055593275914 -0.07118704921561188 0 0 0
407 1 -31.47465123220897 -20.97217528799964 -0.2526806363276513 0 0 0
408 1 -30.26430132020988 -20.27978741428524 -0.3942652839649614 0 0 0
409 1 -30.273995825914024 -18.86813243958496 -0.33996421405706695 0 0 0
360 1 -29.04368143932047 -22.35479429665219 -0.4355019357242943 0 0 0
411 1 -29.034734934838404 -20.983177975970797 -0.3642163446041201 0 0 0
358 1 -27.895256567334318 -24.452237762847407 -0.5021689333222549 0 0 0
359 1 -27.848075540254996 -23.064961928455702 -0.5189278605396506 0 0 0
362 1 -25.46834048801505 -24.474934559938983 -0.5117280756895448 0 0 0
363 1 -25.449850440334213 -23.09281675240398 -0.6214211955939429 0 0 0
364 1 -26.629615162704184 -22.379637958623917 -0.5369589776481901 0 0 0
366 1 -23.033129117011857 -24.439534050813926 -0.7829380785236243 0 0 0
367 1 -23.00586729219632 -23.037338533341202 -0.6859053674903489 0 0 0
368 1 -24.232876815430284 -22.35151497065143 -0.6778974329020112 0 0 0
412 1 -27.83960370063248 -20.282963676166613 -0.4249218114363877 0 0 0
413 1 -27.849031932466833 -18.87943508276957 -0.4381129575018715 0 0 0
415 1 -26.641663317302072 -20.974013474201872 -0.5224552067275393 0 0 0
416 1 -25.42533374880956 -20.273862005977428 -0.6060135589424608 0 0 0
417 1 -25.412404934939172 -18.863775042772286 -0.6268451005328953 0 0 0
419 1 -24.2477625316941 -20.981562820753688 -0.7297779387026838 0 0 0
420 1 -23.02852929085526 -20.280373182279618 -0.6788343234340565 0 0 0
421 1 -23.0027635680802 -18.860761374242838 -0.6098176130110902 0 0 0
370 1 -20.557620318017477 -24.466188711686016 -0.7211706968638864 0 0 0
371 1 -20.55815376213443 -23.04464444090109 -0.7159351153660357 0 0 0
372 1 -21.773171540922856 -22.383650479317488 -0.659546516985722 0 0 0
374 1 -18.121028781869434 -24.413138631309156 -0.7204420133923499 0 0 0
375 1 -18.121026942090847 -23.030276327025405 -0.6510854334362912 0 0 0
376 1 -19.326522681471495 -22.340745513694927 -0.6793640931806333 0 0 0
378 1 -16.90574032090289 -22.34558969051883 -0.48944650638807624 0 0 0
423 1 -21.782539065419638 -20.973114316439908 -0.7212889744024752 0 0 0
424 1 -20.561595861897622 -20.24928805567845 -0.6959853604387736 0 0 0
425 1 -20.557572913936788 -18.866663430480266 -0.6299928833009899 0 0 0
427 1 -19.358028414594994 -20.950910303789815 -0.5911857722475237 0 0 0
428 1 -18.138750013278926 -20.232144638382877 -0.4768957128778781 0 0 0
429 1 -18.12453653671971 -18.864678134465343 -0.4789883833570709 0 0 0
431 1 -16.930098703183805 -20.907699756617014 -0.38986604154391785 0 0 0
451 1 -37.48894520689564 -14.695805342634706 -0.03925307142457311 0 0 0
456 1 -36.24765288531339 -13.964000502287107 -0.009857433778400619 0 0 0
507 1 -36.27980459219401 -12.566504078397692 -0.0899400205125186 0 0 0
410 1 -31.48681254048819 -18.16846893202205 -0.23654667451015277 0 0 0
454 1 -35.105466488506394 -16.109747082158073 -0.10424210604190336 0 0 0
455 1 -35.05146020755248 -14.702690320881679 -0.05446817720687285 0 0 0
457 1 -33.8958617847844 -16.814344425442627 -0.1179105069441516 0 0 0
458 1 -32.695152904162036 -16.075913958533384 -0.13777535493084417 0 0 0
459 1 -32.67522114206664 -14.684314293247752 -0.23470775105602035 0 0 0
460 1 -33.837567863457465 -13.975904390553232 -0.1201206328055242 0 0 0
461 1 -31.49243450393277 -16.78545318933471 -0.17032319320583134 0 0 0
462 1 -30.29917353090367 -16.115692792150654 -0.3502840289483708 0 0 0
463 1 -30.251390030042227 -14.729254835984804 -0.3366207526285291 0 0 0
464 1 -31.464360664186124 -14.002454998293722 -0.28070719317812215 0 0 0
515 1 -31.38865742549915 -12.598749956659034 -0.28016777105552426 0 0 0
414 1 -29.073410989603218 -18.204413735858594 -0.3760971529222199 0 0 0
465 1 -29.066809750274796 -16.795993122763463 -0.3104740885466815 0 0 0
468 1 -29.052941723550727 -14.000398226128702 -0.44215702525137857 0 0 0
519 1 -29.04643924225958 -12.604627913074175 -0.4113785960544803 0 0 0
418 1 -26.61135153557497 -18.177492732334713 -0.5403847646395245 0 0 0
422 1 -24.201864714246565 -18.1975278797754 -0.5715682626224872 0 0 0
466 1 -27.854194738712934 -16.10309512631605 -0.4823648384897693 0 0 0
467 1 -27.83072392032359 -14.698664827952271 -0.36904100093005326 0 0 0
469 1 -26.626230387254587 -16.78384761342251 -0.4734469951556599 0 0 0
470 1 -25.39710607078782 -16.11247692636885 -0.4257957983890513 0 0 0
471 1 -25.406990413168007 -14.68647522299171 -0.4215618492386272 0 0 0
472 1 -26.62059760114056 -14.000595268459854 -0.3486998670939625 0 0 0
473 1 -24.194628468891672 -16.811525843148765 -0.40748423413203627 0 0 0
474 1 -22.995475202546636 -16.122873698619728 -0.32810862566311133 0 0 0
475 1 -22.989749151175094 -14.726867153577757 -0.3624202194595934 0 0 0
476 1 -24.19280933442242 -14.006798995548188 -0.39241091261308925 0 0 0
523 1 -26.580249815444613 -12.592011190071162 -0.34160299633624586 0 0 0
527 1 -24.187799644005754 -12.594593565978549 -0.44710739544590283 0 0 0
426 1 -21.77371839454441 -18.1927372809739 -0.4830067294074236 0 0 0
430 1 -19.358164713663587 -18.178921215072826 -0.5779862098810739 0 0 0
432 1 -16.9109188389965 -18.150883801868794 -0.4152996258806729 0 0 0
477 1 -21.782952785708357 -16.805038883058025 -0.34152371509244067 0 0 0
478 1 -20.581908742860666 -16.077735186149326 -0.36310561265055485 0 0 0
479 1 -20.59475414690159 -14.684801556121208 -0.4648325666088912 0 0 0
480 1 -21.805944782606765 -13.980552347985771 -0.48400258026711707 0 0 0
481 1 -19.349720403261646 -16.771385316758888 -0.5127103672949818 0 0 0
482 1 -18.133695939601232 -16.063752950567995 -0.4113826540394178 0 0 0
483 1 -18.14242860776198 -14.668617851096435 -0.4167189686616222 0 0 0
484 1 -19.3957585780277 -13.96662838001518 -0.5465083048200433 0 0 0
485 1 -16.93211884956905 -16.756135527758033 -0.28534785055780365 0 0 0
486 1 -16.93343337355998 -13.98427888203721 -0.33638962503739334 0 0 0
531 1 -21.784460484902755 -12.573593213079981 -0.5646265921376891 0 0 0
535 1 -19.341616899600126 -12.608193953103864 -0.517513399223135 0 0 0
539 1 -16.932834883921668 -12.598833982136398 -0.3592235933268063 0 0 0
511 1 -33.85777148598578 -12.553987271944116 -0.21571665713763746 0 0 0
508 1 -35.08881156344701 -11.852379760823183 -0.10573209929790571 0 0 0
509 1 -35.084365777054785 -10.476201781209177 -0.03642532002756344 0 0 0
512 1 -32.61810183503415 -11.88809365640384 -0.2098767535617493 0 0 0
513 1 -32.6307339530746 -10.485918851402907 -0.17562215506587203 0 0 0