LAMMPS data file via write_data, version 23 Jun 2022, timestep = 100000

4096 atoms
4 atom types
5120 bonds
1 bond types
8192 angles
8 angle types

0.034 31.325 xlo xhi
-0.527 28.887 ylo yhi
-0.028501 36.117499 zlo zhi

Masses

1 1.008
2 1.008
3 1e-100
4 15.9994

Atoms # full

1419 355 2 0.52 0.9760297414604132 5.327598292753724 2.0104413219862987 1 0 0
1417 355 4 0 1.5952606496944095 5.7019090042067 2.637622773863794 1 0 0
1420 355 3 -1.04 1.5780098211523943 5.557165916763798 2.599664276104959 1 0 0
2414 604 1 0.52 4.62008096166117 4.102143157479167 2.7069436295838374 0 0 0
381 96 4 0 1.2322912747997503 1.128437447149322 3.352825180284112 0 1 0
383 96 2 0.52 1.5475193490358117 0.8765888400690462 4.2213577613229205 0 1 0
384 96 3 -1.04 1.1578418637236623 1.0554914731541098 3.460165732124077 0 1 0
1132 283 3 -1.04 4.413510297717486 6.0882382492038 1.27926912531152 0 0 0
1129 283 4 0 4.4688739128864245 5.975248097838118 1.1972075885857907 0 0 0
1131 283 2 0.52 4.890951165179814 6.43281636957312 1.9238210138663934 0 0 0
331 83 2 0.52 2.9269948954422675 0.7407850164552888 6.724929910696236 0 1 0
1418 355 1 0.52 2.080146705592541 4.94782467151534 2.9736426125413318 1 0 0
2413 604 4 0 4.001451172620163 4.059172996690688 3.4354741707369825 0 0 0
2416 604 3 -1.04 4.15141070645113 4.06233691826729 3.4420413477146754 0 0 0
2415 604 2 0.52 4.553494175540898 4.044367615856601 4.217352245390964 0 0 0
329 83 4 0 3.235320114865117 0.917495870741041 5.835434079876621 0 1 0
332 83 3 -1.04 3.317843074165899 0.8938619280635334 5.958703013281428 0 1 0
4077 1020 4 0 6.929107311092589 4.345349586027361 11.31459786075711 0 0 0
382 96 1 0.52 0.32906387396995174 0.8141684947193022 3.3248612762367205 0 1 0
1130 283 1 0.52 3.6147049154141158 6.397964315579098 1.1118124891010128 0 0 0
2374 594 1 0.52 6.5552624025755675 4.044300424337073 0.5429007119224617 0 0 0
2375 594 2 0.52 5.393228621383934 3.2183977844163367 0.036185485447660204 0 0 0
2625 657 4 0 7.3304473381349595 2.7134258026597853 5.396985054113636 0 0 0
2626 657 1 0.52 7.60606142853689 3.5061050312352537 4.935621299840566 0 0 0
2628 657 3 -1.04 7.471075978538642 2.7601341205298953 5.37035952989425 0 0 0
2660 665 3 -1.04 6.653477300939049 -0.15317456179025185 4.14956825014304 0 0 0
2657 665 4 0 6.646407058254153 -0.09860429132064905 4.010567900326031 0 0 0
2373 594 4 0 5.769326740700172 3.584824163863347 0.8363997774295855 0 0 0
2376 594 3 -1.04 5.8211427158474125 3.5962187165313746 0.6968782060184388 0 0 0
1333 334 4 0 3.7838537081545804 -0.5163677115600547 2.3880919086198973 1 0 1
2627 657 2 0.52 8.14976191158682 2.285442081559844 5.648424041151976 0 0 0
2637 660 4 0 9.01472458849629 1.219324402021509 2.50197781061395 0 0 0
779 195 2 0.52 9.366206091678434 -0.38365745338680346 4.892456611295606 0 1 0
2640 660 3 -1.04 9.004582642909485 1.225177732095508 2.351528884174575 0 0 0
312 78 3 -1.04 10.579171370435953 6.304802242844465 2.7572184445762034 0 0 1
309 78 4 0 10.605134930334257 6.436751331240133 2.823311799983194 0 0 1
310 78 1 0.52 10.461527475642932 6.268832575719498 1.8916642515480073 0 0 1
311 78 2 0.52 10.541061656263699 5.574818541925413 3.234893507858856 0 0 1
907 227 2 0.52 8.118373251727538 5.591719572389165 3.4440174538886263 0 0 0
906 227 1 0.52 7.293247068420394 4.650423829199246 2.592913402980233 0 0 0
908 227 3 -1.04 7.588339982955171 4.900629743185809 3.3759543804502745 0 0 0
905 227 4 0 7.5474777448704735 4.825556940950028 3.498772749854726 0 0 0
3181 796 4 0 14.939590029025842 9.31494858695828 10.951028591244425 0 0 0
2659 665 2 0.52 6.162759215340291 0.19699391060524185 4.7811082737412995 0 0 0
2379 595 2 0.52 9.230721832438487 1.4516977052402473 7.409042806610181 0 0 0
1247 312 2 0.52 13.138536714546298 13.981939214155238 4.79700352171983 0 0 0
1396 349 3 -1.04 8.922460229984308 3.808963751603454 0.7845885625682252 0 0 1
1393 349 4 0 8.809936900094087 3.8900316054548054 0.7290772727043261 0 0 1
2429 608 4 0 0.47564093419020226 7.770325324496962 4.17621676448488 0 0 0
1334 334 1 0.52 4.080706605801044 0.04961657362153543 1.675441788226685 1 0 1
1267 317 2 0.52 11.580665820356824 3.1392424258131624 3.182909806206945 0 0 0
1266 317 1 0.52 10.096410740084412 2.892578394731108 3.009780627682874 0 0 0
2644 661 3 -1.04 13.029731018581783 3.2387622590552003 5.207384413927388 0 0 0
2641 661 4 0 12.919480248031302 3.339367663751746 5.217792110063999 0 0 0
1265 317 4 0 10.881852639626397 3.1552181603502314 2.5286201804725636 0 0 0
1268 317 3 -1.04 10.870489661491296 3.120092066907266 2.6736789281830786 0 0 0
2643 661 2 0.52 13.054711077206791 2.562745525592037 5.760341349636649 0 0 0
2861 716 4 0 12.72957428001371 5.552394554738711 1.4314121540002074 0 0 0
2864 716 3 -1.04 12.685558827914585 5.644715555808663 1.5416725400821925 0 0 0
2642 661 1 0.52 13.644365563821188 3.3243896037301157 4.593546215667972 0 0 0
2862 716 1 0.52 12.59812616893415 6.4989820658861035 1.383972952560191 0 0 0
3059 765 2 0.52 11.909883606254793 11.863891375562186 11.295341227867295 0 0 0
1408 352 3 -1.04 15.325519079950642 6.85018279340168 6.065659032088139 0 0 1
1405 352 4 0 15.301340063098287 6.97372386056786 5.985446939062867 0 0 1
1254 314 1 0.52 12.444141667555888 14.175932022990638 7.754381664376009 0 0 0
1515 379 2 0.52 10.774703378182345 7.5127739658926105 5.084769892014259 0 0 0
1246 312 1 0.52 12.071596754613406 13.007413151656936 5.246990271980561 0 0 0
1182 296 1 0.52 12.463706075457761 0.2593822651025681 1.9354199132698136 0 1 1
2891 723 2 0.52 15.104172321311044 2.5440510687576396 0.34022804744755264 0 0 1
2863 716 2 0.52 12.515995235751596 5.32589314393544 2.3363210459645183 0 0 0
1513 379 4 0 11.09899607237433 7.26357197765995 5.950246996017973 0 0 0
1516 379 3 -1.04 11.179995029077578 7.295021564421855 5.828369629351754 0 0 0
2407 602 2 0.52 11.813241345393617 -0.3684026077725927 7.996628804062823 0 0 0
2391 598 2 0.52 3.659306585860486 7.418163220676668 2.8793663126531204 0 0 0
2392 598 3 -1.04 3.6820016367501 8.269796082688176 2.6857522558100535 0 0 0
2389 598 4 0 3.814315124078475 8.338783100581875 2.6696298356090105 0 0 0
102 26 1 0.52 4.248904121367081 7.544639019931614 7.269812908401671 0 0 0
103 26 2 0.52 4.416670842385784 8.001258627281974 8.70371069468278 0 0 0
3184 796 3 -1.04 15.002816064193468 9.179080068295233 10.937200572106063 0 0 0
104 26 3 -1.04 3.9064823768063666 7.716773178617488 8.054221080379445 0 0 0
279 70 2 0.52 1.2035752644227233 9.664749411803403 3.7845067385390943 0 0 1
2819 705 2 0.52 15.368390914166548 4.563179500322018 3.7451826293083497 0 0 0
3399 850 2 0.52 14.25735628987641 0.8511131978394697 11.796372761601765 0 1 0
2430 608 1 0.52 0.44325985177252525 7.149593478678327 3.4481855556152268 0 0 0
2313 579 4 0 3.726036410708025 14.128463266447698 2.1095451680392805 0 0 0
1078 270 1 0.52 1.9149028637864571 13.378740912448862 10.483734074858452 0 0 0
115 29 2 0.52 3.3219992301971577 11.82916868327055 1.4991635596972976 0 0 0
116 29 3 -1.04 3.5706768812890908 11.07701894351957 1.1313168595081022 0 0 0
113 29 4 0 3.710575569093746 11.062586495162137 1.0779496262563237 0 0 0
1395 349 2 0.52 9.3424474066893 3.234752290640495 0.2772602965488617 0 0 1
1465 367 4 0 0.7329046438594353 4.6180662158667225 5.973557421229261 1 0 0
2390 598 1 0.52 2.938623213199406 8.716411455338886 2.5841342047001494 0 0 0
280 70 3 -1.04 1.6354063970431834 10.424471225152097 3.7670676094614133 0 0 1
277 70 4 0 1.5767473756969093 10.542849018802537 3.697061786945326 0 0 1
73 19 4 0 2.2328526772159334 13.024767539126241 5.018314316198724 0 0 0
76 19 3 -1.04 2.2170028682453515 12.875693914490945 5.007052078690299 0 0 0
3053 764 4 0 5.381695113519529 10.574733412931266 3.215366378463978 0 0 0
3056 764 3 -1.04 5.380181377587866 10.426709599224694 3.2346707608496166 0 0 0
3055 764 2 0.52 4.890783191612212 9.926947557440421 2.711810055541461 0 0 0
2411 603 2 0.52 6.761702577290581 7.4505047199176895 4.468222531041093 0 0 0
278 70 1 0.52 2.412451236056256 10.494879555832393 4.1609755595399225 0 0 1
1184 296 3 -1.04 12.845420879425737 0.8779308457599945 2.41903457785648 0 1 1
75 19 2 0.52 1.5740576378390445 12.539167502275378 4.521693031613526 0 0 0
2427 607 2 0.52 3.590236109534829 9.432246521422774 6.361942606126402 0 0 0
2773 694 4 0 12.682644143309714 2.7722806452697086 0.6027770616416016 0 0 1
101 26 4 0 3.759211023140356 7.697289571998746 8.07819059148225 0 0 0
1424 356 3 -1.04 0.45307529000870306 5.516145425822382 0.1205987490264263 1 0 0
1263 316 2 0.52 5.655423923463668 11.540906253287055 1.060611913428842 0 0 0
3054 764 1 0.52 5.860130151880024 10.061166537526947 3.8670886955257964 0 0 0
2632 658 3 -1.04 5.681059977703349 8.620541501209303 0.5988554011548757 0 0 0
2409 603 4 0 6.588412914848519 8.099340134418062 3.7867445066112717 0 0 0
2412 603 3 -1.04 6.610170426633313 7.951296494817112 3.7691748892381836 0 0 0
1261 316 4 0 6.397343296921051 12.139430810721604 1.1448911957953456 0 0 0
1264 316 3 -1.04 6.362249451797323 12.023721259533326 1.233653360022199 0 0 0
2410 603 1 0.52 6.583495631347709 7.596253561703956 2.971574757002227 0 0 0
2653 664 4 0 15.23967865040168 0.6254287582303704 5.171822501506924 0 0 0
2631 658 2 0.52 4.965388871104779 8.310460216223857 0.9906837613863111 0 0 0
4058 1015 1 0.52 7.690100667708364 8.859204167085744 4.733902832666188 0 0 0
285 72 4 0 6.22051824827438 12.537975268763164 6.21289820624561 0 0 1
288 72 3 -1.04 6.185770288420941 12.61729327201315 6.3354503161722056 0 0 1
2630 658 1 0.52 6.229849347633811 8.07696360954641 0.19171377573866916 0 0 0
286 72 1 0.52 5.76414998380379 13.378179575249868 6.262322193795572 0 0 1
4060 1015 3 -1.04 8.464913005010482 8.95832860965865 5.122636915104417 0 0 0
4057 1015 4 0 8.494284103862581 8.886826560840966 5.2512557145355085 0 0 0
4059 1015 2 0.52 9.073599006363594 9.472839764653795 4.763831085800634 0 0 0
2629 658 4 0 5.710057863529703 8.768095960483265 0.6010472419263548 0 0 0
1257 315 4 0 9.193194814060819 11.949926652389353 4.577959743850493 0 0 0
3291 823 2 0.52 11.032513010228024 12.957485418441232 1.9038573222299675 0 0 0
380 95 3 -1.04 6.6385825197319965 -0.33401669528366823 1.4713518585056418 0 1 0
2656 664 3 -1.04 15.29312489939436 0.5571166111301272 5.0489203085762435 0 0 0
1258 315 1 0.52 9.669350814316637 12.285103261518664 3.8187456079750195 0 0 0
1260 315 3 -1.04 9.136558632141035 12.020736233479116 4.458748393201967 0 0 0
1422 356 1 0.52 1.214155900792485 5.342620169428193 0.5138249807090387 1 0 0
2314 579 1 0.52 4.663732789337421 13.973281522702973 2.222421772850685 0 0 0
71 18 2 0.52 0.3568683195498239 2.8744528621467214 3.5672372050618333 0 0 0
1181 296 4 0 12.86751181486157 1.0148387564859431 2.3607459463986866 0 1 1
1183 296 2 0.52 13.098753059485146 0.7034822050234346 3.2360846046659884 0 1 1
1722 431 1 0.52 8.519753127911208 13.711916052925542 0.16273773958100968 0 0 1
3322 831 1 0.52 13.835724944848453 11.429521395981078 7.273283657356975 0 0 0
1397 350 4 0 12.972590122801929 11.749565837913282 3.2669443705155103 0 0 1
1398 350 1 0.52 13.7009249785895 11.392489140220931 2.758209140937239 0 0 1
1400 350 3 -1.04 13.090971581308773 11.671737730633387 3.3181948924545304 0 0 1
2828 707 3 -1.04 13.108349758507446 8.403978514762578 3.813573033039773 0 0 0
2825 707 4 0 13.102399277559401 8.514345619808585 3.914437139149185 0 0 0
2827 707 2 0.52 13.418168430593992 8.56422881324283 3.0123581852844827 0 0 0
3292 823 3 -1.04 10.19639534175782 12.803649150430271 2.105285123482737 0 0 0
2826 707 1 0.52 12.83080159601222 7.6027561432470465 4.023254994303884 0 0 0
3290 823 1 0.52 9.583045484944197 12.832658018509036 1.4851533320709318 0 0 0
3405 852 4 0 14.511764834654516 6.079171119886084 10.509787031574456 0 1 0
3289 823 4 0 10.15835212900321 12.772073208360725 2.247569507189213 0 0 0
1406 352 1 0.52 15.268711008133605 6.880586500163445 6.937158217166699 0 0 1
1245 312 4 0 12.301280987075664 13.93589951303213 5.258576043365367 0 0 0
378 95 1 0.52 6.657750460305167 0.013003965692772845 2.272298769924001 0 1 0
1399 350 2 0.52 13.166831853597145 11.500859678336584 4.170741038030019 0 0 1
3183 796 2 0.52 15.07997349503524 8.814482815956383 10.147108016481193 0 0 0
2403 601 2 0.52 0.2827537526881363 3.668862392454252 11.249064666897404 0 0 0
356 89 3 -1.04 0.775990109183246 1.325503672580298 7.016594087376077 0 1 0
354 89 1 0.52 0.4148485728242686 2.0142186618978717 6.618859937213392 0 1 0
4079 1020 2 0.52 6.503655590176362 4.989477540819134 10.747603142064548 0 0 0
355 89 2 0.52 1.0499220204691182 1.3900850719575575 7.843533354090268 0 1 0
2639 660 2 0.52 8.283464537549184 0.941613943393792 1.9505672203477933 0 0 0
4078 1020 1 0.52 6.20722137702464 3.85712874959867 11.707931196582814 0 0 0
353 89 4 0 0.7915622062184539 1.1963051778865144 6.942059298426293 0 1 0
2012 503 3 -1.04 2.983017272796362 5.774637144212962 5.426693194065997 1 0 0
2010 503 1 0.52 2.1595364994945476 5.885435647419993 5.696500732302601 1 0 0
924 231 3 -1.04 3.486145813503589 1.1580123123173904 8.884980164332472 0 0 0
922 231 1 0.52 4.1532401362442535 1.2047124902735684 8.323071579288598 0 0 0
2011 503 2 0.52 3.1474634688781626 5.334113422735246 4.690573367262218 1 0 0
923 231 2 0.52 3.2736930676287774 1.8518464612080865 9.371789166512329 0 0 0
2401 601 4 0 0.616329065776125 2.8376400628954412 11.585049710226661 0 0 0
2404 601 3 -1.04 0.4819830895697561 2.864616762450241 11.525809383098217 0 0 0
921 231 4 0 3.4079247894634146 1.0312831085156309 8.898177902846237 0 0 0
2009 503 4 0 3.095975673997818 5.831167024297006 5.506377096202464 1 0 0
94 24 1 0.52 2.2016455002572286 3.1786732636726205 9.66911949992728 0 0 0
93 24 4 0 3.0795763899732242 3.407969916191746 9.97641967569351 0 0 0
96 24 3 -1.04 3.0116949962375847 3.4519500715484583 9.849506861843587 0 0 0
95 24 2 0.52 3.430102066084139 3.979435492199239 9.293470302880737 0 0 0
114 29 1 0.52 3.008693716168446 10.41108517755638 1.0712490522299196 0 0 0
2399 600 2 0.52 4.863749597602599 5.6414033088265265 6.513307326540166 0 0 0
934 234 1 0.52 0.6362382209666777 6.7098055094849185 11.070728972577502 0 0 0
936 234 3 -1.04 0.9778196646731723 5.95436205830909 11.34718025108957 0 0 0
933 234 4 0 0.8877503327400832 5.844443577131088 11.394703329069106 0 0 0
3383 846 2 0.52 8.701390925353284 1.758147865132564 0.6418253119798611 1 0 1
2297 575 4 0 6.070320357934308 0.7027233499727034 6.981778798949589 0 0 1
2300 575 3 -1.04 6.152976341769198 0.7439680016045024 7.100226564049048 0 0 1
2299 575 2 0.52 6.753905979488125 1.3720705725421494 7.016347479042886 0 0 1
2398 600 1 0.52 6.173396693438098 6.395863110655978 6.600542020289793 0 0 0
2400 600 3 -1.04 5.721450853759125 5.652369283685621 6.677664567278345 0 0 0
2397 600 4 0 5.7917987663353045 5.5258484002528485 6.718806240209449 0 0 0
2298 575 1 0.52 6.031348564590268 0.35346193950479965 7.872056661468064 0 0 1
2774 694 1 0.52 13.158652825624213 2.3585323897715122 1.3237833802229892 0 0 1
898 225 1 0.52 7.306328165130858 3.589004410544886 8.923647628982813 0 0 0
897 225 4 0 6.675331524827113 3.2509667105549793 8.288510042856245 0 0 0
900 225 3 -1.04 6.769226082101656 3.3675369639339463 8.272317818136477 0 0 0
899 225 2 0.52 6.775000647505302 3.8200884776102852 7.524751913440804 0 0 0
2378 595 1 0.52 8.872434293636367 0.0781328929632652 6.8828862272410385 0 0 0
1423 356 2 0.52 0.16338799955562153 6.3381889620568455 0.06989669497453244 1 0 0
2377 595 4 0 8.816141143815033 1.0091799760174847 6.668225074678799 0 0 0
2380 595 3 -1.04 8.876457213863766 0.9467624192043438 6.790817979430063 0 0 0
1248 312 3 -1.04 12.379484463966932 13.822495608408268 5.198146161533764 0 0 0
1110 278 1 0.52 9.34590730726346 6.8474193063382405 11.122551002855792 0 0 0
1152 288 3 -1.04 8.605547709977783 0.7920690624191853 9.124604287390728 0 0 0
1149 288 4 0 8.584413898201584 0.7550498315348304 9.268635320659762 0 0 0
1127 282 2 0.52 5.819545630143587 6.134920288199237 8.424817988615688 0 0 0
1125 282 4 0 5.898900701336294 6.332957861974039 9.35729313147449 0 0 0
1128 282 3 -1.04 5.778034506461119 6.347687283785982 9.270555555594795 0 0 0
313 79 4 0 1.4397418586052673 12.237193629377101 1.4695349105802555 0 0 1
927 232 2 0.52 11.08911087514025 -0.009916434715461886 9.463893784709668 0 0 0
2634 659 1 0.52 10.599072022459168 3.8004194541976544 7.636020651767984 0 0 0
1507 377 2 0.52 8.397863112014226 8.933583968690805 11.019914729194896 0 0 0
1228 307 3 -1.04 11.792485940656007 10.555993015959869 6.129369806515956 0 0 0
1262 316 1 0.52 6.8674992803494135 11.830947446765927 1.920301645434071 0 0 0
3182 796 1 0.52 15.289711946504632 8.757009937434939 11.645352079446447 0 0 0
1077 270 4 0 2.2793487525000224 14.081901328863454 11.022567654907457 0 0 0
1850 463 1 0.52 0.2097163192576813 8.995339180940254 11.825853591515672 1 0 0
2635 659 2 0.52 11.523339021958616 3.1932629391587426 6.6024373315261125 0 0 0
2823 706 2 0.52 12.709503825562894 7.137111200459892 7.629151951667428 0 0 0
2406 602 1 0.52 11.206947974761922 0.41871497656102213 6.854225085073325 0 0 0
1225 307 4 0 11.859652971070657 10.690133380774085 6.125770840999784 0 0 0
1089 273 4 0 11.85182505888099 6.062984306775952 10.854942786542473 0 0 0
1279 320 2 0.52 8.605489487731175 6.9279110772986305 8.818698751701767 0 0 0
1280 320 3 -1.04 8.819745928387107 6.081502040567748 8.795744009755799 0 0 0
1277 320 4 0 8.768167239855337 5.994191931642951 8.684917190939757 0 0 0
1092 273 3 -1.04 11.889699641605246 5.950862429632268 10.948126479586062 0 0 0
1278 320 1 0.52 9.337947001736127 5.743022464551463 9.412657475486457 0 0 0
240 60 3 -1.04 15.314296411661621 14.167939856084653 4.06517160920971 0 0 0
1271 318 2 0.52 14.233545543552204 1.6157385545021896 7.675798974468298 0 0 0
2408 602 3 -1.04 11.194994790416992 -0.27413715412733286 7.3864196419645785 0 0 0
1272 318 3 -1.04 13.55628951820921 1.3912770974655801 8.180210840349469 0 0 0
1269 318 4 0 13.421789248943751 1.451887914142752 8.156737313361642 0 0 0
1270 318 1 0.52 13.662414486555331 0.8089079398545144 8.823245563639757 0 0 0
928 232 3 -1.04 11.288193977935837 0.35543433478592523 10.230900129798256 0 0 0
925 232 4 0 11.416335962475229 0.31862139717364085 10.300710153596162 0 0 0
926 232 1 0.52 10.747073190135927 0.9367594005329478 10.594738639229506 0 0 0
2633 659 4 0 10.81495544752558 2.972881830312755 7.207728896259455 0 0 0
2636 659 3 -1.04 10.878179512102712 3.1070642562863733 7.185017792847636 0 0 0
2878 720 1 0.52 12.818163842939935 2.7203466161803296 9.366839281506874 0 0 0
2879 720 2 0.52 13.792871397883172 2.9024280059024354 10.510651401504541 0 0 0
2877 720 4 0 12.996659367050034 3.271550398728445 10.128313994138196 0 0 0
2880 720 3 -1.04 13.075658020933908 3.1536707529962817 10.079798802624746 0 0 0
1090 273 1 0.52 12.222853713815962 5.211167135185495 10.625826564068266 0 0 0
2405 602 4 0 11.086274489314233 -0.3768309549573675 7.373814904791254 0 0 0
3408 852 3 -1.04 14.483972749995964 6.213538511084969 10.569300292397044 0 1 0
2638 660 1 0.52 9.669726316028981 1.5441508224970844 1.8839895150206878 0 0 0
3324 831 3 -1.04 13.721312634306726 11.414539690944993 8.139162323055372 0 0 0
1514 379 1 0.52 12.052394189653256 7.263749038975227 5.85923601526095 0 0 0
3026 757 1 0.52 4.040448876817505 6.062844215524036 11.574864774889367 0 0 0
3060 765 3 -1.04 11.33997034213331 12.518401405236697 11.393811997306203 0 0 0
1091 273 2 0.52 11.774715355742543 6.042267321349069 11.80888298393264 0 0 0
1071 268 2 0.52 4.041763740558697 13.108886782080132 9.980352940955408 0 0 0
1072 268 3 -1.04 3.7778996992273544 12.752047796825089 9.228706277758878 0 0 0
2666 667 1 0.52 0.7928058949153884 11.145285318874018 0.27798205989450964 0 0 0
1069 268 4 0 3.787387845311504 12.603769913787442 9.208715167590588 0 0 0
74 19 1 0.52 2.7716736218008657 12.34879673667129 5.428997240003961 0 0 0
2426 607 1 0.52 4.4468149189133745 10.570364667796762 5.851280459283357 0 0 0
935 234 2 0.52 1.8432175635204335 5.8382569293145234 11.346143095402615 0 0 0
1336 334 3 -1.04 3.914823506313896 -0.4452306715999739 2.3762978627564575 1 0 1
2775 694 2 0.52 12.695430195198679 3.7059935903470373 0.8112132702810452 0 0 1
2776 694 3 -1.04 12.745215342762533 2.8389741452242663 0.7214818217139916 0 0 1
377 95 4 0 6.654856019845419 -0.24656958491162456 1.3510424570332857 0 1 0
3027 757 2 0.52 3.6068232254739927 7.511102456432254 11.492197597979976 0 0 0
3028 757 3 -1.04 3.759276808897434 6.743644009102664 11.10435557276385 0 0 0
1377 345 4 0 1.25612864399339 7.664898241459286 9.685242073473947 0 0 1
1380 345 3 -1.04 1.3603149573137823 7.629596282322581 9.582640982847135 0 0 1
1506 377 1 0.52 8.322348439067865 9.963929024465541 9.914464538452856 0 0 0
1379 345 2 0.52 2.144997562508317 8.010911967972357 9.615467115476926 0 0 1
4071 1018 2 0.52 2.2883481486132804 11.696864333015943 9.001011558953243 0 0 0
4069 1018 4 0 1.7674682202514445 10.933792337637092 8.751161143507584 0 0 0
4072 1018 3 -1.04 1.757325963679658 11.074091838492045 8.697177954536528 0 0 0
2428 607 3 -1.04 3.8235030345291965 9.974397244547632 5.717526486589479 0 0 0
4070 1018 1 0.52 1.1654547333640668 11.262876718602099 8.083104086205859 0 0 0
2425 607 4 0 3.7557231326154437 9.965211525492009 5.584441898969433 0 0 0
1466 367 1 0.52 1.0294223310397614 4.255565985918665 5.138933647019076 1 0 0
4050 1013 1 0.52 5.488594035602309 9.358143203405161 10.394911552857884 0 0 0
1798 450 1 0.52 0.4474912139956686 11.290345924656386 10.626340989780156 1 0 0
4049 1013 4 0 5.322565606592111 9.621551374228554 9.490142136761243 0 0 0
4052 1013 3 -1.04 5.248182030466124 9.664463809674702 9.61241889860416 0 0 0
2830 708 1 0.52 13.771818900808993 4.74940565736023 11.951034526349936 0 0 0
1835 459 2 0.52 0.05899272220820448 9.308407770519999 5.933586789527655 1 0 0
1070 268 1 0.52 3.4545649176404662 13.256163248906946 8.593673026670006 0 0 0
4080 1020 3 -1.04 6.782896994037662 4.365369237510708 11.29206440249646 0 0 0
330 83 1 0.52 4.189243352068745 0.9082164643066344 5.906544572352777 0 1 0
3025 757 4 0 3.7367211174802835 6.727801683785966 10.957501013715612 0 0 0
2890 723 1 0.52 15.137269417603127 1.8327901795936261 1.6756694253312416 0 0 1
3397 850 4 0 14.855206589373976 0.10507307568834341 11.761362655453675 0 1 0
2365 592 4 0 10.027522672992365 11.073388111549587 9.400419804619766 0 0 0
287 72 2 0.52 6.410005943994887 12.314683580073911 7.124309921626687 0 0 1
118 30 1 0.52 10.541799399878911 14.170619750761489 10.639105615467942 0 0 0
1126 282 1 0.52 5.031440042071463 6.647670660192986 9.611003319021588 0 0 0
2368 592 3 -1.04 10.05246085773018 11.029549594673362 9.258564542524649 0 0 0
2355 589 2 0.52 9.572838067263916 12.658502682144208 6.60951725046445 0 0 0
2366 592 1 0.52 9.760191640236151 11.515553837347962 8.594663510285894 0 0 0
1112 278 3 -1.04 9.836837135349294 7.560625699213174 11.236680512878811 0 0 0
2353 589 4 0 9.397645357473458 13.173391828308388 7.396340408231495 0 0 0
2356 589 3 -1.04 9.34368894396642 13.195401582448994 7.2587130992985465 0 0 0
2295 574 2 0.52 7.0996016101393336 9.70090686187727 7.013870464753261 0 0 1
2296 574 3 -1.04 6.867583162374286 10.273363783099244 7.631771477248446 0 0 1
2354 589 1 0.52 8.793498384031151 13.856894105577659 7.1071050863081 0 0 0
4051 1013 2 0.52 4.57357863659841 10.215049950183117 9.54592707307507 0 0 0
2294 574 1 0.52 6.2917741527848055 10.043916463190593 8.247765225482247 0 0 1
4034 1009 1 0.52 6.127288662117815 11.896634009147446 10.165653045285769 0 0 0
2293 574 4 0 6.926008002822156 10.410313774560843 7.631610672072772 0 0 1
4035 1009 2 0.52 7.562126865096728 12.377518274282618 10.104092872947001 0 0 0
4036 1009 3 -1.04 6.809679713906067 12.293878939814501 10.539751852419515 0 0 0
4033 1009 4 0 6.796744258467377 12.348232222120345 10.678922232512344 0 0 0
1109 278 4 0 9.776761582746948 7.682902341531713 11.30025213172584 0 0 0
1111 278 2 0.52 10.671306132731692 7.5650162047021094 10.979007821525379 0 0 0
1421 356 4 0 0.3720227775267323 5.404940753911261 0.06213709350334131 1 0 0
1505 377 4 0 7.806164222582937 9.56816960124536 10.615914720280028 0 0 0
1508 377 3 -1.04 7.947990912105259 9.53680405915442 10.57813505762295 0 0 0
2822 706 1 0.52 12.7205735200961 7.9700919343078 8.893175814933018 0 0 0
1080 270 3 -1.04 2.313322711233525 14.04807677497413 10.880066168307625 0 0 0
2316 579 3 -1.04 3.806642125045886 14.141299602734021 2.2356434205562357 0 0 0
1227 307 2 0.52 11.50435172903454 10.191478821438782 5.389661027275136 0 0 0
2821 706 4 0 13.300276460292391 7.541535153179306 8.263840779775709 0 0 0
1226 307 1 0.52 11.691305761290797 10.14142522964473 6.89090911728948 0 0 0
3321 831 4 0 13.797169537967426 11.316067212755957 8.223228197269103 0 0 0
1259 315 2 0.52 8.277901905807278 12.168944249028423 4.404085696151002 0 0 0
3323 831 2 0.52 13.165608285006824 11.971235590302845 8.517748371149127 0 0 0
2367 592 2 0.52 10.485849658489231 10.287501330678191 9.101437106093732 0 0 0
2824 706 3 -1.04 13.149915518356364 7.54459388207994 8.263507135323582 0 0 0
1151 288 2 0.52 9.29107072906135 0.46977796220362295 8.689342158289652 0 0 0
1407 352 2 0.52 15.521667115138918 6.099340032920565 5.665475202673584 0 0 1
316 79 3 -1.04 1.3580735873507876 12.223149233473375 1.5948187819045718 0 0 1
315 79 2 0.52 1.506070442722753 11.55350113886935 2.136443523024574 0 0 1
3057 765 4 0 11.316738635001949 12.615935302174705 11.28166732854371 0 0 0
1378 345 1 0.52 1.1807218184299457 7.04886653254524 8.955822605489491 0 0 1
2432 608 3 -1.04 0.36279795288743194 7.679108363877876 4.138323128262918 0 0 0
1468 367 3 -1.04 0.6530767653601938 4.5365186100192165 5.8754732849234825 1 0 0
1150 288 1 0.52 8.04405369576505 1.3276883968180173 8.72368171054747 0 0 0
314 79 1 0.52 0.739846785439478 12.811273731063913 1.7832815016464099 0 0 1
3406 852 1 0.52 14.30891635975887 6.895224004332641 10.053728620819923 0 1 0
3400 850 3 -1.04 14.886566445720927 0.24885182087901658 11.73399055576629 0 1 0
3407 852 2 0.52 14.49685190868758 6.312784853951425 11.437808214468006 0 1 0
1394 349 1 0.52 9.158126521616799 3.9094469631654065 1.6196439638335782 0 0 1
2780 695 3 -1.04 15.229754688388711 6.1730903192657465 0.010925510743506422 0 0 1
2817 705 4 0 15.000468067624045 3.6966661449721765 3.569258259215742 0 0 0
2820 705 3 -1.04 15.141984205401982 3.7308420704890732 3.6057453920776186 0 0 0
2851 713 2 0.52 15.60128873605331 1.0466776468916132 8.496299676973463 0 0 0
2892 723 3 -1.04 15.545817152340723 2.1063520699515057 0.9538056787795253 0 0 1
237 60 4 0 15.167164137120611 14.148271740102025 4.0410233379861635 0 0 0
2655 664 2 0.52 14.92601159190498 -0.18444261129059292 4.768572775847523 0 0 0
2779 695 2 0.52 15.625950585085262 5.970021833435087 0.761302750206021 0 0 1
326 82 1 0.52 2.99063610908378 4.478440098914108 0.044784704719852186 0 1 0
917 230 4 0 1.7837723371523475 1.860445218494759 14.774771439966614 0 0 0
920 230 3 -1.04 1.763058233058623 1.9214466185405539 14.639994753985519 0 0 0
919 230 2 0.52 1.215566609609475 2.594573804017917 14.540819583583271 0 0 0
918 230 1 0.52 2.1941782516864956 1.6017676606074684 13.950475433449036 0 0 0
3822 956 1 0.52 4.733004971986344 1.1801177473482198 16.06063126830091 0 0 0
3821 956 4 0 4.19757724789006 0.49259271945718647 15.66587196911557 0 0 0
3824 956 3 -1.04 4.151596565700232 0.625481964576088 15.717018967053681 0 0 0
3823 956 2 0.52 3.3078551368898865 0.8464493304556684 15.673229281862486 0 0 0
2801 701 4 0 13.419930179716284 5.6350663870683455 23.85193238163606 0 0 0
909 228 4 0 0.9815075220798181 -0.48569876406611623 15.946081071642096 0 0 0
912 228 3 -1.04 1.0247300904964332 -0.4201422682702043 15.817815115759664 0 0 0
954 239 1 0.52 5.294530795346181 3.1720650348875097 15.12042803086104 0 0 0
955 239 2 0.52 4.90333365629599 3.2451905428643344 16.5806649871401 0 0 0
953 239 4 0 5.652332602323645 3.3398302790161263 15.992337782949608 0 0 0
956 239 3 -1.04 5.510529929131749 3.3056705260995964 15.955924857259488 0 0 0
3039 760 2 0.52 1.1259018047463647 5.2550004285523935 13.42095904583152 0 0 0
2610 653 1 0.52 15.401322838558723 9.491092191703357 15.911021621040755 0 0 0
1705 427 4 0 5.180779867269973 7.010402955200643 17.747836481732527 0 0 0
1708 427 3 -1.04 5.1050598737611335 7.1339960699921585 17.710674477478833 0 0 0
564 141 3 -1.04 2.94225692724358 13.82079062861674 14.535362413710166 1 0 0
910 228 1 0.52 1.1705720654032166 0.440943180254478 15.796768294279389 0 0 0
4039 1010 2 0.52 15.601822129655078 7.338061372741005 13.662602494246451 0 0 0
3038 760 1 0.52 1.9535318168936853 4.743037091619654 14.579958228156258 0 0 0
3040 760 3 -1.04 1.5720208942974627 5.404086797462182 14.156796672311229 0 0 0
3037 760 4 0 1.582756321775126 5.544338439784692 14.210678277917475 0 0 0
3063 766 2 0.52 4.246146528748284 1.7376616163875218 12.348955728667043 0 0 0
3061 766 4 0 5.187139027418217 1.9123962966366401 12.391298484424087 0 0 0
3064 766 3 -1.04 5.118547283230391 1.7790083887706316 12.38590861750549 0 0 0
945 237 4 0 7.232839445275777 1.7484783120953085 16.914418868309184 0 0 0
1693 424 4 0 9.546646770249769 4.262202378100272 13.92077912544779 0 0 0
1696 424 3 -1.04 9.399974996896711 4.295891042014767 13.91965982829 0 0 0
1694 424 1 0.52 9.113521063178165 5.017108524262161 14.32114374971022 0 0 0
948 237 3 -1.04 7.333574115889682 1.8556241691499868 16.887192200273486 0 0 0
947 237 2 0.52 8.041010658739989 1.9293028926881164 17.393708718797598 0 0 0
2685 672 4 0 7.9166058880433665 0.4321452755487671 14.63534796787213 0 0 0
2688 672 3 -1.04 7.775034022349227 0.48168236061556696 14.643683677018045 0 0 0
1695 424 2 0.52 8.836169962891223 3.767949636457452 13.512368154016773 0 0 0
4012 1003 3 -1.04 4.852855654792938 6.171017780291077 13.64758430288812 0 0 0
4009 1003 4 0 4.744786469442167 6.096270942756412 13.57570273739883 0 0 0
4010 1003 1 0.52 5.230614879141157 6.863901105261376 13.273500533662482 0 0 0
3787 947 2 0.52 7.934217807082601 6.2944175807869 16.64685127341992 0 0 0
2686 672 1 0.52 7.348785569724377 0.706181074733626 13.915155308322452 0 0 0
3788 947 3 -1.04 7.7071948097861815 5.7208060011652515 16.028712668876796 0 0 0
3785 947 4 0 7.694726612030823 5.765320027192545 15.88579295878552 0 0 0